# vtk DataFile Version 2.0
Original file cross_a_2x1x1.egrid converted for CPG unit tests
ASCII
DATASET UNSTRUCTURED_GRID
POINTS 16 double
0 0 50
0 0 150
100 0 -50
100 0 50
100 0 150
0 100 -50
0 100 50
100 100 -50
100 100 50
100 100 150
100 50 0
100 50 100
200 0 -50
200 0 50
200 100 50
200 100 150
CELLS 2 84
41 8
4 0 3 4 1
4 6 8 7 5
4 1 6 5 0
3 3 11 4
3 8 10 7
4 10 8 11 3
5 4 11 8 6 1
5 0 5 7 10 3
41 8
4 2 12 13 3
4 9 15 14 8
3 3 10 2
3 8 11 9
4 3 11 8 10
4 12 14 15 13
5 3 13 15 9 11
5 10 8 14 12 2
CELL_TYPES 2
42
42
CELL_DATA 2
SCALARS CellFlags int 1
LOOKUP_TABLE default
1
1
SCALARS CellReal double 1
LOOKUP_TABLE default
1.
1.
FIELD ArrayVariables 2
CellArrayFlags 3 2 int
1
2
3
1
2
3
CellArrayReal 3 2 double
1.
2.
3.
1.
2.
3.
SCALARS GROUP_HALF_CELL int 1
LOOKUP_TABLE default
0
1
POINT_DATA 16
SCALARS NodeFlags int 1
LOOKUP_TABLE default
1
1
1
1
1
1
1
1
1
1
1
1
1
1
1
1
SCALARS NodeReal double 1
LOOKUP_TABLE default
1.
1.
1.
1.
1.
1.
1.
1.
1.
1.
1.
1.
1.
1.
1.
1.
FIELD ArrayVariables 2
NodeArrayFlags 3 16 int
1
2
3
1
2
3
1
2
3
1
2
3
1
2
3
1
2
3
1
2
3
1
2
3
1
2
3
1
2
3
1
2
3
1
2
3
1
2
3
1
2
3
1
2
3
1
2
3
NodeArrayReal 3 16 double
1.
2.
3.
1.
2.
3.
1.
2.
3.
1.
2.
3.
1.
2.
3.
1.
2.
3.
1.
2.
3.
1.
2.
3.
1.
2.
3.
1.
2.
3.
1.
2.
3.
1.
2.
3.
1.
2.
3.
1.
2.
3.
1.
2.
3.
1.
2.
3.
SCALARS GROUP_FIRST_CELL_NODES int 1
LOOKUP_TABLE default
1
1
0
1
1
1
1
1
1
0
1
1
0
0
0
0