# vtk DataFile Version 2.0
Original file fan_2x1x3.egrid converted for CPG unit tests
ASCII
DATASET UNSTRUCTURED_GRID
POINTS 27 double
0 0 0
100 0 0
100 0 100
100 0 200
100 0 300
0 100 0
0 100 100
0 100 200
0 100 300
100 100 0
100 100 100
100 100 200
100 100 300
100 25 75
100 33.3333 66.6667
100 50 50
100 40 120
100 50 100
100 66.6667 66.6667
100 50 150
100 60 120
100 75 75
200 0 0
200 0 100
200 0 200
200 0 300
200 100 0
CELLS 6 264
39 8
4 6 10 9 5
3 0 6 5
3 10 21 9
3 9 15 1
3 9 18 15
3 9 21 18
7 1 15 18 21 10 6 0
4 0 5 9 1
45 8
4 7 11 10 6
3 0 7 6
4 11 20 21 10
3 1 15 14
4 15 18 17 14
4 18 21 20 17
7 1 14 17 20 11 7 0
7 0 6 10 21 18 15 1
45 8
4 8 12 11 7
3 0 8 7
4 12 19 20 11
3 1 14 13
4 14 17 16 13
4 17 20 19 16
7 1 13 16 19 12 8 0
7 0 7 11 20 17 14 1
39 8
4 1 22 23 2
3 2 13 1
3 1 15 9
3 13 14 1
3 14 15 1
3 22 26 23
7 2 23 26 9 15 14 13
4 9 26 22 1
45 8
4 2 23 24 3
4 3 16 13 2
4 13 16 17 14
4 14 17 18 15
3 15 18 9
3 23 26 24
7 3 24 26 9 18 17 16
7 13 14 15 9 26 23 2
45 8
4 3 24 25 4
4 4 19 16 3
4 16 19 20 17
4 17 20 21 18
3 18 21 9
3 24 26 25
7 4 25 26 9 21 20 19
7 16 17 18 9 26 24 3
CELL_TYPES 6
42
42
42
42
42
42
CELL_DATA 6
SCALARS CellFlags int 1
LOOKUP_TABLE default
1
1
1
1
1
1
SCALARS CellReal double 1
LOOKUP_TABLE default
1.
1.
1.
1.
1.
1.
FIELD ArrayVariables 2
CellArrayFlags 3 6 int
1
2
3
1
2
3
1
2
3
1
2
3
1
2
3
1
2
3
CellArrayReal 3 6 double
1.
2.
3.
1.
2.
3.
1.
2.
3.
1.
2.
3.
1.
2.
3.
1.
2.
3.
SCALARS GROUP_HALF_CELL int 1
LOOKUP_TABLE default
0
0
0
1
1
1
POINT_DATA 27
SCALARS NodeFlags int 1
LOOKUP_TABLE default
1
1
1
1
1
1
1
1
1
1
1
1
1
1
1
1
1
1
1
1
1
1
1
1
1
1
1
SCALARS NodeReal double 1
LOOKUP_TABLE default
1.
1.
1.
1.
1.
1.
1.
1.
1.
1.
1.
1.
1.
1.
1.
1.
1.
1.
1.
1.
1.
1.
1.
1.
1.
1.
1.
FIELD ArrayVariables 2
NodeArrayFlags 3 27 int
1
2
3
1
2
3
1
2
3
1
2
3
1
2
3
1
2
3
1
2
3
1
2
3
1
2
3
1
2
3
1
2
3
1
2
3
1
2
3
1
2
3
1
2
3
1
2
3
1
2
3
1
2
3
1
2
3
1
2
3
1
2
3
1
2
3
1
2
3
1
2
3
1
2
3
1
2
3
1
2
3
NodeArrayReal 3 27 double
1.
2.
3.
1.
2.
3.
1.
2.
3.
1.
2.
3.
1.
2.
3.
1.
2.
3.
1.
2.
3.
1.
2.
3.
1.
2.
3.
1.
2.
3.
1.
2.
3.
1.
2.
3.
1.
2.
3.
1.
2.
3.
1.
2.
3.
1.
2.
3.
1.
2.
3.
1.
2.
3.
1.
2.
3.
1.
2.
3.
1.
2.
3.
1.
2.
3.
1.
2.
3.
1.
2.
3.
1.
2.
3.
1.
2.
3.
1.
2.
3.
SCALARS GROUP_FIRST_CELL_NODES int 1
LOOKUP_TABLE default
1
1
0
0
0
1
1
0
0
1
1
0
0
0
0
1
0
0
1
0
0
1
0
0
0
0
0