# vtk DataFile Version 2.0
Original file faultx1_2x1x1.egrid converted for CPG unit tests
ASCII
DATASET UNSTRUCTURED_GRID
POINTS 16 double
0 0 25
0 0 -75
100 0 25
100 0 -25
100 0 -75
100 0 -125
0 100 25
0 100 -75
100 100 25
100 100 -25
100 100 -75
100 100 -125
200 0 -25
200 0 -125
200 100 -25
200 100 -125
CELLS 2 78
38 7
5 0 2 3 4 1
5 6 8 9 10 7
4 0 6 7 1
4 2 8 9 3
4 3 4 10 9
4 1 7 10 4
4 0 6 8 2
38 7
5 3 12 13 5 4
5 9 14 15 11 10
4 3 9 10 4
4 4 10 11 5
4 12 14 15 13
4 5 13 15 11
4 3 12 14 9
CELL_TYPES 2
42
42
CELL_DATA 2
SCALARS CellFlags int 1
LOOKUP_TABLE default
1
1
SCALARS CellReal double 1
LOOKUP_TABLE default
1.
1.
FIELD ArrayVariables 2
CellArrayFlags 3 2 int
1
2
3
1
2
3
CellArrayReal 3 2 double
1.
2.
3.
1.
2.
3.
SCALARS GROUP_HALF_CELL int 1
LOOKUP_TABLE default
0
1
POINT_DATA 16
SCALARS NodeFlags int 1
LOOKUP_TABLE default
1
1
1
1
1
1
1
1
1
1
1
1
1
1
1
1
SCALARS NodeReal double 1
LOOKUP_TABLE default
1.
1.
1.
1.
1.
1.
1.
1.
1.
1.
1.
1.
1.
1.
1.
1.
FIELD ArrayVariables 2
NodeArrayFlags 3 16 int
1
2
3
1
2
3
1
2
3
1
2
3
1
2
3
1
2
3
1
2
3
1
2
3
1
2
3
1
2
3
1
2
3
1
2
3
1
2
3
1
2
3
1
2
3
1
2
3
NodeArrayReal 3 16 double
1.
2.
3.
1.
2.
3.
1.
2.
3.
1.
2.
3.
1.
2.
3.
1.
2.
3.
1.
2.
3.
1.
2.
3.
1.
2.
3.
1.
2.
3.
1.
2.
3.
1.
2.
3.
1.
2.
3.
1.
2.
3.
1.
2.
3.
1.
2.
3.
SCALARS GROUP_FIRST_CELL_NODES int 1
LOOKUP_TABLE default
1
1
1
1
1
0
1
1
1
1
1
0
0
0
0
0