# vtk DataFile Version 2.0
Maillage Arcane
ASCII
DATASET UNSTRUCTURED_GRID
POINTS 503 double
0 0 0
0 1.36203e-18 0.0166667
0.089989 0 2.33781e-19
0.089989 2.75727e-26 0.0166667
0 0.025 0
0 0.025 0.0166667
0.089989 0.025 2.40741e-35
0.09 0.025 0.0166667
0 0.05 0
0 0.05 0.0166667
0.089989 0.05 2.40741e-35
0.0899927 0.05 0.0166667
0 0.075 0
0 0.075 0.0166667
0.089989 0.075 0
0.09 0.075 0.0166667
0 0.1 0
0 0.1 0.0166667
0.089989 0.1 0
0.089989 0.1 0.0166667
0.179978 0 4.67562e-19
0.179978 3.44659e-27 0.0166667
0.179978 0.025 9.62965e-35
0.18 0.025 0.0166667
0.179978 0.05 9.62965e-35
0.179985 0.05 0.0166667
0.179978 0.075 4.81482e-35
0.18 0.075 0.0166667
0.179978 0.1 0
0.179978 0.1 0.0166667
0.269967 0 1.2498e-18
0.269967 5.16988e-27 0.0166667
0.269967 0.025 1.92593e-34
0.27 0.025 0.0166667
0.269967 0.05 3.85186e-34
0.269978 0.05 0.0166667
0.269967 0.075 1.44445e-34
0.27 0.075 0.0166667
0.269967 0.1 0
0.269967 0.1 0.0166667
0.359956 1.46537e-17 0
0.359956 -1.65436e-25 0.0166667
0.359956 0.025 0
0.36 0.025 0.0166667
0.359956 0.05 0
0.359971 0.05 0.0166667
0.359956 0.075 0
0.36 0.075 0.0166667
0.359956 0.1 0
0.359956 0.1 0.0166667
0.449945 3.46272e-18 0
0.449945 2.30848e-18 0.0166667
0.449945 0.025 0
0.45 0.025 0.0166667
0.449945 0.05 0
0.449963 0.05 0.0166667
0.449945 0.075 0
0.45 0.075 0.0166667
0.449945 0.1 0
0.449945 0.1 0.0166667
0 0 0.0333333
0.089989 -6.89317e-27 0.0333333
0 0.025 0.0333333
0.09 0.025 0.0333333
0 0.05 0.0333333
0.0899963 0.05 0.0333333
0 0.075 0.0333333
0.09 0.075 0.0333333
0 0.1 0.0333333
0.089989 0.1 0.0333333
0.179978 -1.37863e-26 0.0333333
0.18 0.025 0.0333333
0.179993 0.05 0.0333333
0.18 0.075 0.0333333
0.179978 0.1 0.0333333
0.269967 -2.06795e-26 0.0333333
0.27 0.025 0.0333333
0.269989 0.05 0.0333334
0.27 0.075 0.0333333
0.269967 0.1 0.0333333
0.359956 -1.65436e-25 0.0333333
0.36 0.025 0.0333333
0.359985 0.05 0.0333334
0.36 0.075 0.0333333
0.359956 0.1 0.0333333
0.449945 1.15424e-18 0.0333333
0.45 0.025 0.0333333
0.449982 0.05 0.0333334
0.45 0.075 0.0333333
0.449945 0.1 0.0333333
0 0 0.05
0.089989 -1.03398e-26 0.05
0 0.025 0.05
0.0899945 0.025 0.05
0 0.05 0.05
0.09 0.05 0.05
0 0.075 0.05
0.0899945 0.075 0.05
0 0.1 0.05
0.089989 0.1 0.05
0.179978 -2.06795e-26 0.05
0.179989 0.025 0.05
0.18 0.05 0.05
0.179989 0.075 0.05
0.179978 0.1 0.05
0.269967 2.06795e-26 0.05
0.269983 0.025 0.05
0.27 0.05 0.05
0.269983 0.075 0.05
0.269967 0.1 0.05
0.359956 1.65436e-25 0.05
0.359978 0.025 0.05
0.36 0.05 0.05
0.359978 0.075 0.05
0.359956 0.1 0.05
0.449945 0 0.05
0.449972 0.025 0.05
0.45 0.05 0.05
0.449972 0.075 0.05
0.449945 0.1 0.05
0 0 0.0666667
0.089989 -6.89317e-27 0.0666667
0 0.025 0.0666667
0.09 0.025 0.0666667
0 0.05 0.0666667
0.0899963 0.05 0.0666667
0 0.075 0.0666667
0.09 0.075 0.0666667
0 0.1 0.0666667
0.089989 0.1 0.0666667
0.179978 -1.37863e-26 0.0666667
0.18 0.025 0.0666667
0.179993 0.05 0.0666667
0.18 0.075 0.0666667
0.179978 0.1 0.0666667
0.269967 -2.06795e-26 0.0666667
0.27 0.025 0.0666667
0.269989 0.05 0.0666666
0.27 0.075 0.0666667
0.269967 0.1 0.0666667
0.359956 1.10291e-25 0.0666667
0.36 0.025 0.0666667
0.359985 0.05 0.0666666
0.36 0.075 0.0666667
0.359956 0.1 0.0666667
0.449945 0 0.0666667
0.45 0.025 0.0666667
0.449982 0.05 0.0666666
0.45 0.075 0.0666667
0.449945 0.1 0.0666667
0 0 0.0833333
0.089989 -3.44659e-27 0.0833333
0 0.025 0.0833333
0.09 0.025 0.0833333
0 0.05 0.0833333
0.0899927 0.05 0.0833333
0 0.075 0.0833333
0.09 0.075 0.0833333
0 0.1 0.0833333
0.089989 0.1 0.0833333
0.179978 -6.89317e-27 0.0833333
0.18 0.025 0.0833333
0.179985 0.05 0.0833333
0.18 0.075 0.0833333
0.179978 0.1 0.0833333
0.269967 -1.03398e-26 0.0833333
0.27 0.025 0.0833333
0.269978 0.05 0.0833333
0.27 0.075 0.0833333
0.269967 0.1 0.0833333
0.359956 5.51454e-26 0.0833333
0.36 0.025 0.0833333
0.359971 0.05 0.0833333
0.36 0.075 0.0833333
0.359956 0.1 0.0833333
0.449945 0 0.0833333
0.45 0.025 0.0833333
0.449963 0.05 0.0833333
0.45 0.075 0.0833333
0.449945 0.1 0.0833333
0 0 0.1
0.089989 0 0.1
0 0.025 0.1
0.089989 0.025 0.1
0 0.05 0.1
0.089989 0.05 0.1
0 0.075 0.1
0.089989 0.075 0.1
0 0.1 0.1
0.089989 0.1 0.1
0.179978 0 0.1
0.179978 0.025 0.1
0.179978 0.05 0.1
0.179978 0.075 0.1
0.179978 0.1 0.1
0.269967 0 0.1
0.269967 0.025 0.1
0.269967 0.05 0.1
0.269967 0.075 0.1
0.269967 0.1 0.1
0.359956 0 0.1
0.359956 0.025 0.1
0.359956 0.05 0.1
0.359956 0.075 0.1
0.359956 0.1 0.1
0.449945 0 0.1
0.449945 0.025 0.1
0.449945 0.05 0.1
0.449945 0.075 0.1
0.449945 0.1 0.1
0.483505 0 0
0.483505 -3.44659e-26 0.05
0.483505 0.05 0
0.483333 0.05 0.05
0.483505 0.1 0
0.483505 0.1 0.05
0.517065 0 0
0.517065 -1.72329e-26 0.05
0.517065 0.05 0
0.516667 0.05 0.05
0.517065 0.1 0
0.517065 0.1 0.05
0.550625 0 0
0.550625 0 0.05
0.550625 0.05 0
0.55 0.05 0.05
0.550625 0.1 0
0.550625 0.1 0.05
0.483505 0 0.1
0.483505 0.05 0.1
0.483505 0.1 0.1
0.517065 0 0.1
0.517065 0.05 0.1
0.517065 0.1 0.1
0.550625 0 0.1
0.550625 0.05 0.1
0.550625 0.1 0.1
0.550625 0 0.01
0.662969 0 7.70165e-18
0.662969 0 0.01
0.550625 0.025 0
0.55 0.025 0.01
0.662969 0.025 -3.08149e-33
0.6625 0.025 0.01
0.5505 0.05 0.0100156
0.662969 0.05 -3.08149e-33
0.662875 0.05 0.0100117
0.550625 0.075 0
0.55 0.075 0.01
0.662969 0.075 -2.31112e-33
0.6625 0.075 0.01
0.550625 0.1 0.01
0.662969 0.1 0
0.662969 0.1 0.01
0.775313 0 2.20644e-17
0.775313 -4.81482e-35 0.01
0.775313 0.025 0
0.775 0.025 0.01
0.775313 0.05 0
0.77525 0.05 0.0100078
0.775313 0.075 -1.54074e-33
0.775 0.075 0.01
0.775313 0.1 0
0.775313 0.1 0.01
0.887656 0 1.89718e-17
0.887656 0 0.01
0.887656 0.025 0
0.8875 0.025 0.01
0.887656 0.05 0
0.887625 0.05 0.0100039
0.887656 0.075 -3.08149e-33
0.8875 0.075 0.01
0.887656 0.1 0
0.887656 0.1 0.01
1 0 0
1 -4.00647e-19 0.01
1 0.025 6.86944e-18
1 0.025 0.01
1 0.05 1.54736e-17
1 0.05 0.01
1 0.075 5.01105e-18
1 0.075 0.01
1 0.1 0
1 0.1 0.01
0.550625 0 0.02
0.662969 0 0.02
0.55 0.025 0.02
0.6625 0.025 0.02
0.550375 0.05 0.0200117
0.662781 0.05 0.0200088
0.55 0.075 0.02
0.6625 0.075 0.02
0.550625 0.1 0.02
0.662969 0.1 0.02
0.775313 0 0.02
0.775 0.025 0.02
0.775188 0.05 0.0200059
0.775 0.075 0.02
0.775313 0.1 0.02
0.887656 0 0.02
0.8875 0.025 0.02
0.887594 0.05 0.0200029
0.8875 0.075 0.02
0.887656 0.1 0.02
1 0 0.02
1 0.025 0.02
1 0.05 0.02
1 0.075 0.02
1 0.1 0.02
0.550625 0 0.03
0.662969 0 0.03
0.55 0.025 0.03
0.6625 0.025 0.03
0.55025 0.05 0.0300078
0.662688 0.05 0.0300059
0.55 0.075 0.03
0.6625 0.075 0.03
0.550625 0.1 0.03
0.662969 0.1 0.03
0.775313 3.85186e-34 0.03
0.775 0.025 0.03
0.775125 0.05 0.0300039
0.775 0.075 0.03
0.775313 0.1 0.03
0.887656 0 0.03
0.8875 0.025 0.03
0.887563 0.05 0.030002
0.8875 0.075 0.03
0.887656 0.1 0.03
1 5.18045e-18 0.03
1 0.025 0.03
1 0.05 0.03
1 0.075 0.03
1 0.1 0.03
0.550625 0 0.04
0.662969 3.37038e-34 0.04
0.55 0.025 0.04
0.6625 0.025 0.04
0.550125 0.05 0.0400039
0.662594 0.05 0.0400029
0.55 0.075 0.04
0.6625 0.075 0.04
0.550625 0.1 0.04
0.662969 0.1 0.04
0.775313 7.70372e-34 0.04
0.775 0.025 0.04
0.775063 0.05 0.040002
0.775 0.075 0.04
0.775313 0.1 0.04
0.887656 9.62965e-34 0.04
0.8875 0.025 0.04
0.887531 0.05 0.040001
0.8875 0.075 0.04
0.887656 0.1 0.04
1 9.2496e-19 0.04
1 0.025 0.04
1 0.05 0.04
1 0.075 0.04
1 0.1 0.04
0.662969 0 0.05
0.550313 0.0250039 0.05
0.662734 0.0250029 0.05
0.6625 0.05 0.05
0.550313 0.0749961 0.05
0.662734 0.0749971 0.05
0.662969 0.1 0.05
0.775313 0 0.05
0.775156 0.025002 0.05
0.775 0.05 0.05
0.775156 0.074998 0.05
0.775313 0.1 0.05
0.887656 0 0.05
0.887578 0.025001 0.05
0.8875 0.05 0.05
0.887578 0.074999 0.05
0.887656 0.1 0.05
1 0 0.05
1 0.025 0.05
1 0.05 0.05
1 0.075 0.05
1 0.1 0.05
0.550625 0 0.06
0.662969 0 0.06
0.55 0.025 0.06
0.6625 0.025 0.06
0.550125 0.05 0.0599961
0.662594 0.05 0.0599971
0.55 0.075 0.06
0.6625 0.075 0.06
0.550625 0.1 0.06
0.662969 0.1 0.06
0.775313 0 0.06
0.775 0.025 0.06
0.775063 0.05 0.059998
0.775 0.075 0.06
0.775313 0.1 0.06
0.887656 0 0.06
0.8875 0.025 0.06
0.887531 0.05 0.059999
0.8875 0.075 0.06
0.887656 0.1 0.06
1 0 0.06
1 0.025 0.06
1 0.05 0.06
1 0.075 0.06
1 0.1 0.06
0.550625 0 0.07
0.662969 0 0.07
0.55 0.025 0.07
0.6625 0.025 0.07
0.55025 0.05 0.0699922
0.662688 0.05 0.0699941
0.55 0.075 0.07
0.6625 0.075 0.07
0.550625 0.1 0.07
0.662969 0.1 0.07
0.775313 0 0.07
0.775 0.025 0.07
0.775125 0.05 0.0699961
0.775 0.075 0.07
0.775313 0.1 0.07
0.887656 0 0.07
0.8875 0.025 0.07
0.887563 0.05 0.069998
0.8875 0.075 0.07
0.887656 0.1 0.07
1 0 0.07
1 0.025 0.07
1 0.05 0.07
1 0.075 0.07
1 0.1 0.07
0.550625 0 0.08
0.662969 0 0.08
0.55 0.025 0.08
0.6625 0.025 0.08
0.550375 0.05 0.0799883
0.662781 0.05 0.0799912
0.55 0.075 0.08
0.6625 0.075 0.08
0.550625 0.1 0.08
0.662969 0.1 0.08
0.775313 0 0.08
0.775 0.025 0.08
0.775188 0.05 0.0799941
0.775 0.075 0.08
0.775313 0.1 0.08
0.887656 0 0.08
0.8875 0.025 0.08
0.887594 0.05 0.0799971
0.8875 0.075 0.08
0.887656 0.1 0.08
1 0 0.08
1 0.025 0.08
1 0.05 0.08
1 0.075 0.08
1 0.1 0.08
0.550625 0 0.09
0.662969 0 0.09
0.55 0.025 0.09
0.6625 0.025 0.09
0.5505 0.05 0.0899844
0.662875 0.05 0.0899883
0.55 0.075 0.09
0.6625 0.075 0.09
0.550625 0.1 0.09
0.662969 0.1 0.09
0.775313 0 0.09
0.775 0.025 0.09
0.77525 0.05 0.0899922
0.775 0.075 0.09
0.775313 0.1 0.09
0.887656 0 0.09
0.8875 0.025 0.09
0.887625 0.05 0.0899961
0.8875 0.075 0.09
0.887656 0.1 0.09
1 0 0.09
1 0.025 0.09
1 0.05 0.09
1 0.075 0.09
1 0.1 0.09
0.662969 0 0.1
0.550625 0.025 0.1
0.662969 0.025 0.1
0.662969 0.05 0.1
0.550625 0.075 0.1
0.662969 0.075 0.1
0.662969 0.1 0.1
0.775313 0 0.1
0.775313 0.025 0.1
0.775313 0.05 0.1
0.775313 0.075 0.1
0.775313 0.1 0.1
0.887656 0 0.1
0.887656 0.025 0.1
0.887656 0.05 0.1
0.887656 0.075 0.1
0.887656 0.1 0.1
1 0 0.1
1 0.025 0.1
1 0.05 0.1
1 0.075 0.1
1 0.1 0.1
CELLS 292 2628
8 0 1 3 2 4 5 7 6
8 4 5 7 6 8 9 11 10
8 8 9 11 10 12 13 15 14
8 12 13 15 14 16 17 19 18
8 2 3 21 20 6 7 23 22
8 6 7 23 22 10 11 25 24
8 10 11 25 24 14 15 27 26
8 14 15 27 26 18 19 29 28
8 20 21 31 30 22 23 33 32
8 22 23 33 32 24 25 35 34
8 24 25 35 34 26 27 37 36
8 26 27 37 36 28 29 39 38
8 30 31 41 40 32 33 43 42
8 32 33 43 42 34 35 45 44
8 34 35 45 44 36 37 47 46
8 36 37 47 46 38 39 49 48
8 40 41 51 50 42 43 53 52
8 42 43 53 52 44 45 55 54
8 44 45 55 54 46 47 57 56
8 46 47 57 56 48 49 59 58
8 1 60 61 3 5 62 63 7
8 5 62 63 7 9 64 65 11
8 9 64 65 11 13 66 67 15
8 13 66 67 15 17 68 69 19
8 3 61 70 21 7 63 71 23
8 7 63 71 23 11 65 72 25
8 11 65 72 25 15 67 73 27
8 15 67 73 27 19 69 74 29
8 21 70 75 31 23 71 76 33
8 23 71 76 33 25 72 77 35
8 25 72 77 35 27 73 78 37
8 27 73 78 37 29 74 79 39
8 31 75 80 41 33 76 81 43
8 33 76 81 43 35 77 82 45
8 35 77 82 45 37 78 83 47
8 37 78 83 47 39 79 84 49
8 41 80 85 51 43 81 86 53
8 43 81 86 53 45 82 87 55
8 45 82 87 55 47 83 88 57
8 47 83 88 57 49 84 89 59
8 60 90 91 61 62 92 93 63
8 62 92 93 63 64 94 95 65
8 64 94 95 65 66 96 97 67
8 66 96 97 67 68 98 99 69
8 61 91 100 70 63 93 101 71
8 63 93 101 71 65 95 102 72
8 65 95 102 72 67 97 103 73
8 67 97 103 73 69 99 104 74
8 70 100 105 75 71 101 106 76
8 71 101 106 76 72 102 107 77
8 72 102 107 77 73 103 108 78
8 73 103 108 78 74 104 109 79
8 75 105 110 80 76 106 111 81
8 76 106 111 81 77 107 112 82
8 77 107 112 82 78 108 113 83
8 78 108 113 83 79 109 114 84
8 80 110 115 85 81 111 116 86
8 81 111 116 86 82 112 117 87
8 82 112 117 87 83 113 118 88
8 83 113 118 88 84 114 119 89
8 90 120 121 91 92 122 123 93
8 92 122 123 93 94 124 125 95
8 94 124 125 95 96 126 127 97
8 96 126 127 97 98 128 129 99
8 91 121 130 100 93 123 131 101
8 93 123 131 101 95 125 132 102
8 95 125 132 102 97 127 133 103
8 97 127 133 103 99 129 134 104
8 100 130 135 105 101 131 136 106
8 101 131 136 106 102 132 137 107
8 102 132 137 107 103 133 138 108
8 103 133 138 108 104 134 139 109
8 105 135 140 110 106 136 141 111
8 106 136 141 111 107 137 142 112
8 107 137 142 112 108 138 143 113
8 108 138 143 113 109 139 144 114
8 110 140 145 115 111 141 146 116
8 111 141 146 116 112 142 147 117
8 112 142 147 117 113 143 148 118
8 113 143 148 118 114 144 149 119
8 120 150 151 121 122 152 153 123
8 122 152 153 123 124 154 155 125
8 124 154 155 125 126 156 157 127
8 126 156 157 127 128 158 159 129
8 121 151 160 130 123 153 161 131
8 123 153 161 131 125 155 162 132
8 125 155 162 132 127 157 163 133
8 127 157 163 133 129 159 164 134
8 130 160 165 135 131 161 166 136
8 131 161 166 136 132 162 167 137
8 132 162 167 137 133 163 168 138
8 133 163 168 138 134 164 169 139
8 135 165 170 140 136 166 171 141
8 136 166 171 141 137 167 172 142
8 137 167 172 142 138 168 173 143
8 138 168 173 143 139 169 174 144
8 140 170 175 145 141 171 176 146
8 141 171 176 146 142 172 177 147
8 142 172 177 147 143 173 178 148
8 143 173 178 148 144 174 179 149
8 150 180 181 151 152 182 183 153
8 152 182 183 153 154 184 185 155
8 154 184 185 155 156 186 187 157
8 156 186 187 157 158 188 189 159
8 151 181 190 160 153 183 191 161
8 153 183 191 161 155 185 192 162
8 155 185 192 162 157 187 193 163
8 157 187 193 163 159 189 194 164
8 160 190 195 165 161 191 196 166
8 161 191 196 166 162 192 197 167
8 162 192 197 167 163 193 198 168
8 163 193 198 168 164 194 199 169
8 165 195 200 170 166 196 201 171
8 166 196 201 171 167 197 202 172
8 167 197 202 172 168 198 203 173
8 168 198 203 173 169 199 204 174
8 170 200 205 175 171 201 206 176
8 171 201 206 176 172 202 207 177
8 172 202 207 177 173 203 208 178
8 173 203 208 178 174 204 209 179
8 50 115 211 210 54 117 213 212
8 54 117 213 212 58 119 215 214
8 210 211 217 216 212 213 219 218
8 212 213 219 218 214 215 221 220
8 216 217 223 222 218 219 225 224
8 218 219 225 224 220 221 227 226
8 115 205 228 211 117 207 229 213
8 117 207 229 213 119 209 230 215
8 211 228 231 217 213 229 232 219
8 213 229 232 219 215 230 233 221
8 217 231 234 223 219 232 235 225
8 219 232 235 225 221 233 236 227
8 222 237 239 238 240 241 243 242
8 240 241 243 242 224 244 246 245
8 224 244 246 245 247 248 250 249
8 247 248 250 249 226 251 253 252
8 238 239 255 254 242 243 257 256
8 242 243 257 256 245 246 259 258
8 245 246 259 258 249 250 261 260
8 249 250 261 260 252 253 263 262
8 254 255 265 264 256 257 267 266
8 256 257 267 266 258 259 269 268
8 258 259 269 268 260 261 271 270
8 260 261 271 270 262 263 273 272
8 264 265 275 274 266 267 277 276
8 266 267 277 276 268 269 279 278
8 268 269 279 278 270 271 281 280
8 270 271 281 280 272 273 283 282
8 237 284 285 239 241 286 287 243
8 241 286 287 243 244 288 289 246
8 244 288 289 246 248 290 291 250
8 248 290 291 250 251 292 293 253
8 239 285 294 255 243 287 295 257
8 243 287 295 257 246 289 296 259
8 246 289 296 259 250 291 297 261
8 250 291 297 261 253 293 298 263
8 255 294 299 265 257 295 300 267
8 257 295 300 267 259 296 301 269
8 259 296 301 269 261 297 302 271
8 261 297 302 271 263 298 303 273
8 265 299 304 275 267 300 305 277
8 267 300 305 277 269 301 306 279
8 269 301 306 279 271 302 307 281
8 271 302 307 281 273 303 308 283
8 284 309 310 285 286 311 312 287
8 286 311 312 287 288 313 314 289
8 288 313 314 289 290 315 316 291
8 290 315 316 291 292 317 318 293
8 285 310 319 294 287 312 320 295
8 287 312 320 295 289 314 321 296
8 289 314 321 296 291 316 322 297
8 291 316 322 297 293 318 323 298
8 294 319 324 299 295 320 325 300
8 295 320 325 300 296 321 326 301
8 296 321 326 301 297 322 327 302
8 297 322 327 302 298 323 328 303
8 299 324 329 304 300 325 330 305
8 300 325 330 305 301 326 331 306
8 301 326 331 306 302 327 332 307
8 302 327 332 307 303 328 333 308
8 309 334 335 310 311 336 337 312
8 311 336 337 312 313 338 339 314
8 313 338 339 314 315 340 341 316
8 315 340 341 316 317 342 343 318
8 310 335 344 319 312 337 345 320
8 312 337 345 320 314 339 346 321
8 314 339 346 321 316 341 347 322
8 316 341 347 322 318 343 348 323
8 319 344 349 324 320 345 350 325
8 320 345 350 325 321 346 351 326
8 321 346 351 326 322 347 352 327
8 322 347 352 327 323 348 353 328
8 324 349 354 329 325 350 355 330
8 325 350 355 330 326 351 356 331
8 326 351 356 331 327 352 357 332
8 327 352 357 332 328 353 358 333
8 334 223 359 335 336 360 361 337
8 336 360 361 337 338 225 362 339
8 338 225 362 339 340 363 364 341
8 340 363 364 341 342 227 365 343
8 335 359 366 344 337 361 367 345
8 337 361 367 345 339 362 368 346
8 339 362 368 346 341 364 369 347
8 341 364 369 347 343 365 370 348
8 344 366 371 349 345 367 372 350
8 345 367 372 350 346 368 373 351
8 346 368 373 351 347 369 374 352
8 347 369 374 352 348 370 375 353
8 349 371 376 354 350 372 377 355
8 350 372 377 355 351 373 378 356
8 351 373 378 356 352 374 379 357
8 352 374 379 357 353 375 380 358
8 223 381 382 359 360 383 384 361
8 360 383 384 361 225 385 386 362
8 225 385 386 362 363 387 388 364
8 363 387 388 364 227 389 390 365
8 359 382 391 366 361 384 392 367
8 361 384 392 367 362 386 393 368
8 362 386 393 368 364 388 394 369
8 364 388 394 369 365 390 395 370
8 366 391 396 371 367 392 397 372
8 367 392 397 372 368 393 398 373
8 368 393 398 373 369 394 399 374
8 369 394 399 374 370 395 400 375
8 371 396 401 376 372 397 402 377
8 372 397 402 377 373 398 403 378
8 373 398 403 378 374 399 404 379
8 374 399 404 379 375 400 405 380
8 381 406 407 382 383 408 409 384
8 383 408 409 384 385 410 411 386
8 385 410 411 386 387 412 413 388
8 387 412 413 388 389 414 415 390
8 382 407 416 391 384 409 417 392
8 384 409 417 392 386 411 418 393
8 386 411 418 393 388 413 419 394
8 388 413 419 394 390 415 420 395
8 391 416 421 396 392 417 422 397
8 392 417 422 397 393 418 423 398
8 393 418 423 398 394 419 424 399
8 394 419 424 399 395 420 425 400
8 396 421 426 401 397 422 427 402
8 397 422 427 402 398 423 428 403
8 398 423 428 403 399 424 429 404
8 399 424 429 404 400 425 430 405
8 406 431 432 407 408 433 434 409
8 408 433 434 409 410 435 436 411
8 410 435 436 411 412 437 438 413
8 412 437 438 413 414 439 440 415
8 407 432 441 416 409 434 442 417
8 409 434 442 417 411 436 443 418
8 411 436 443 418 413 438 444 419
8 413 438 444 419 415 440 445 420
8 416 441 446 421 417 442 447 422
8 417 442 447 422 418 443 448 423
8 418 443 448 423 419 444 449 424
8 419 444 449 424 420 445 450 425
8 421 446 451 426 422 447 452 427
8 422 447 452 427 423 448 453 428
8 423 448 453 428 424 449 454 429
8 424 449 454 429 425 450 455 430
8 431 456 457 432 433 458 459 434
8 433 458 459 434 435 460 461 436
8 435 460 461 436 437 462 463 438
8 437 462 463 438 439 464 465 440
8 432 457 466 441 434 459 467 442
8 434 459 467 442 436 461 468 443
8 436 461 468 443 438 463 469 444
8 438 463 469 444 440 465 470 445
8 441 466 471 446 442 467 472 447
8 442 467 472 447 443 468 473 448
8 443 468 473 448 444 469 474 449
8 444 469 474 449 445 470 475 450
8 446 471 476 451 447 472 477 452
8 447 472 477 452 448 473 478 453
8 448 473 478 453 449 474 479 454
8 449 474 479 454 450 475 480 455
8 456 234 481 457 458 482 483 459
8 458 482 483 459 460 235 484 461
8 460 235 484 461 462 485 486 463
8 462 485 486 463 464 236 487 465
8 457 481 488 466 459 483 489 467
8 459 483 489 467 461 484 490 468
8 461 484 490 468 463 486 491 469
8 463 486 491 469 465 487 492 470
8 466 488 493 471 467 489 494 472
8 467 489 494 472 468 490 495 473
8 468 490 495 473 469 491 496 474
8 469 491 496 474 470 492 497 475
8 471 493 498 476 472 494 499 477
8 472 494 499 477 473 495 500 478
8 473 495 500 478 474 496 501 479
8 474 496 501 479 475 497 502 480
CELL_TYPES 292
12
12
12
12
12
12
12
12
12
12
12
12
12
12
12
12
12
12
12
12
12
12
12
12
12
12
12
12
12
12
12
12
12
12
12
12
12
12
12
12
12
12
12
12
12
12
12
12
12
12
12
12
12
12
12
12
12
12
12
12
12
12
12
12
12
12
12
12
12
12
12
12
12
12
12
12
12
12
12
12
12
12
12
12
12
12
12
12
12
12
12
12
12
12
12
12
12
12
12
12
12
12
12
12
12
12
12
12
12
12
12
12
12
12
12
12
12
12
12
12
12
12
12
12
12
12
12
12
12
12
12
12
12
12
12
12
12
12
12
12
12
12
12
12
12
12
12
12
12
12
12
12
12
12
12
12
12
12
12
12
12
12
12
12
12
12
12
12
12
12
12
12
12
12
12
12
12
12
12
12
12
12
12
12
12
12
12
12
12
12
12
12
12
12
12
12
12
12
12
12
12
12
12
12
12
12
12
12
12
12
12
12
12
12
12
12
12
12
12
12
12
12
12
12
12
12
12
12
12
12
12
12
12
12
12
12
12
12
12
12
12
12
12
12
12
12
12
12
12
12
12
12
12
12
12
12
12
12
12
12
12
12
12
12
12
12
12
12
12
12
12
12
12
12
12
12
12
12
12
12
12
12
12
12
12
12
12
12
12
12
12
12
CELL_DATA 292
SCALARS GROUP_ZG int 1
LOOKUP_TABLE default
1
1
1
1
1
1
1
1
1
1
1
1
1
1
1
1
1
1
1
1
1
1
1
1
1
1
1
1
1
1
1
1
1
1
1
1
1
1
1
1
1
1
1
1
1
1
1
1
1
1
1
1
1
1
1
1
1
1
1
1
1
1
1
1
1
1
1
1
1
1
1
1
1
1
1
1
1
1
1
1
1
1
1
1
1
1
1
1
1
1
1
1
1
1
1
1
1
1
1
1
1
1
1
1
1
1
1
1
1
1
1
1
1
1
1
1
1
1
1
1
0
0
0
0
0
0
0
0
0
0
0
0
0
0
0
0
0
0
0
0
0
0
0
0
0
0
0
0
0
0
0
0
0
0
0
0
0
0
0
0
0
0
0
0
0
0
0
0
0
0
0
0
0
0
0
0
0
0
0
0
0
0
0
0
0
0
0
0
0
0
0
0
0
0
0
0
0
0
0
0
0
0
0
0
0
0
0
0
0
0
0
0
0
0
0
0
0
0
0
0
0
0
0
0
0
0
0
0
0
0
0
0
0
0
0
0
0
0
0
0
0
0
0
0
0
0
0
0
0
0
0
0
0
0
0
0
0
0
0
0
0
0
0
0
0
0
0
0
0
0
0
0
0
0
0
0
0
0
0
0
0
0
0
0
0
0
0
0
0
0
0
0
SCALARS GROUP_INIT int 1
LOOKUP_TABLE default
0
0
0
0
0
0
0
0
0
0
0
0
0
0
0
0
0
0
0
0
0
0
0
0
0
0
0
0
0
0
0
0
0
0
0
0
0
0
0
0
0
0
0
0
0
0
0
0
0
0
0
0
0
0
0
0
0
0
0
0
0
0
0
0
0
0
0
0
0
0
0
0
0
0
0
0
0
0
0
0
0
0
0
0
0
0
0
0
0
0
0
0
0
0
0
0
0
0
0
0
0
0
0
0
0
0
0
0
0
0
0
0
0
0
0
0
0
0
0
0
1
1
1
1
1
1
1
1
1
1
1
1
0
0
0
0
0
0
0
0
0
0
0
0
0
0
0
0
0
0
0
0
0
0
0
0
0
0
0
0
0
0
0
0
0
0
0
0
0
0
0
0
0
0
0
0
0
0
0
0
0
0
0
0
0
0
0
0
0
0
0
0
0
0
0
0
0
0
0
0
0
0
0
0
0
0
0
0
0
0
0
0
0
0
0
0
0
0
0
0
0
0
0
0
0
0
0
0
0
0
0
0
0
0
0
0
0
0
0
0
0
0
0
0
0
0
0
0
0
0
0
0
0
0
0
0
0
0
0
0
0
0
0
0
0
0
0
0
0
0
0
0
0
0
0
0
0
0
0
0
0
0
0
0
0
0
0
0
0
0
0
0
SCALARS GROUP_ZD int 1
LOOKUP_TABLE default
0
0
0
0
0
0
0
0
0
0
0
0
0
0
0
0
0
0
0
0
0
0
0
0
0
0
0
0
0
0
0
0
0
0
0
0
0
0
0
0
0
0
0
0
0
0
0
0
0
0
0
0
0
0
0
0
0
0
0
0
0
0
0
0
0
0
0
0
0
0
0
0
0
0
0
0
0
0
0
0
0
0
0
0
0
0
0
0
0
0
0
0
0
0
0
0
0
0
0
0
0
0
0
0
0
0
0
0
0
0
0
0
0
0
0
0
0
0
0
0
0
0
0
0
0
0
0
0
0
0
0
0
1
1
1
1
1
1
1
1
1
1
1
1
1
1
1
1
1
1
1
1
1
1
1
1
1
1
1
1
1
1
1
1
1
1
1
1
1
1
1
1
1
1
1
1
1
1
1
1
1
1
1
1
1
1
1
1
1
1
1
1
1
1
1
1
1
1
1
1
1
1
1
1
1
1
1
1
1
1
1
1
1
1
1
1
1
1
1
1
1
1
1
1
1
1
1
1
1
1
1
1
1
1
1
1
1
1
1
1
1
1
1
1
1
1
1
1
1
1
1
1
1
1
1
1
1
1
1
1
1
1
1
1
1
1
1
1
1
1
1
1
1
1
1
1
1
1
1
1
1
1
1
1
1
1
1
1
1
1
1
1
