# vtk DataFile Version 2.0
Maillage Arcane
ASCII
DATASET UNSTRUCTURED_GRID
POINTS 389 double
0 0 0
0 1.36203e-18 0.0166667
0.089989 0 2.33781e-19
0.089989 2.75727e-26 0.0166667
0 0.05 0
0 0.05 0.0166667
0.089989 0.05 2.40741e-35
0.0899927 0.05 0.0166667
0 0.1 0
0 0.1 0.0166667
0.089989 0.1 0
0.089989 0.1 0.0166667
0.179978 0 4.67562e-19
0.179978 3.44659e-27 0.0166667
0.179978 0.05 9.62965e-35
0.179985 0.05 0.0166667
0.179978 0.1 0
0.179978 0.1 0.0166667
0.269967 0 1.2498e-18
0.269967 5.16988e-27 0.0166667
0.269967 0.05 3.85186e-34
0.269978 0.05 0.0166667
0.269967 0.1 0
0.269967 0.1 0.0166667
0.359956 1.46537e-17 0
0.359956 -1.65436e-25 0.0166667
0.359956 0.05 0
0.359971 0.05 0.0166667
0.359956 0.1 0
0.359956 0.1 0.0166667
0.449945 3.46272e-18 0
0.449945 2.30848e-18 0.0166667
0.449945 0.05 0
0.449963 0.05 0.0166667
0.449945 0.1 0
0.449945 0.1 0.0166667
0 0 0.0333333
0.089989 -6.89317e-27 0.0333333
0 0.05 0.0333333
0.0899963 0.05 0.0333333
0 0.1 0.0333333
0.089989 0.1 0.0333333
0.179978 -1.37863e-26 0.0333333
0.179993 0.05 0.0333333
0.179978 0.1 0.0333333
0.269967 -2.06795e-26 0.0333333
0.269989 0.05 0.0333334
0.269967 0.1 0.0333333
0.359956 -1.65436e-25 0.0333333
0.359985 0.05 0.0333334
0.359956 0.1 0.0333333
0.449945 1.15424e-18 0.0333333
0.449982 0.05 0.0333334
0.449945 0.1 0.0333333
0 0 0.05
0.089989 -1.03398e-26 0.05
0 0.05 0.05
0.09 0.05 0.05
0 0.1 0.05
0.089989 0.1 0.05
0.179978 -2.06795e-26 0.05
0.18 0.05 0.05
0.179978 0.1 0.05
0.269967 2.06795e-26 0.05
0.27 0.05 0.05
0.269967 0.1 0.05
0.359956 1.65436e-25 0.05
0.36 0.05 0.05
0.359956 0.1 0.05
0.449945 0 0.05
0.45 0.05 0.05
0.449945 0.1 0.05
0 0 0.0666667
0.089989 -6.89317e-27 0.0666667
0 0.05 0.0666667
0.0899963 0.05 0.0666667
0 0.1 0.0666667
0.089989 0.1 0.0666667
0.179978 -1.37863e-26 0.0666667
0.179993 0.05 0.0666667
0.179978 0.1 0.0666667
0.269967 -2.06795e-26 0.0666667
0.269989 0.05 0.0666666
0.269967 0.1 0.0666667
0.359956 1.10291e-25 0.0666667
0.359985 0.05 0.0666666
0.359956 0.1 0.0666667
0.449945 0 0.0666667
0.449982 0.05 0.0666666
0.449945 0.1 0.0666667
0 0 0.0833333
0.089989 -3.44659e-27 0.0833333
0 0.05 0.0833333
0.0899927 0.05 0.0833333
0 0.1 0.0833333
0.089989 0.1 0.0833333
0.179978 -6.89317e-27 0.0833333
0.179985 0.05 0.0833333
0.179978 0.1 0.0833333
0.269967 -1.03398e-26 0.0833333
0.269978 0.05 0.0833333
0.269967 0.1 0.0833333
0.359956 5.51454e-26 0.0833333
0.359971 0.05 0.0833333
0.359956 0.1 0.0833333
0.449945 0 0.0833333
0.449963 0.05 0.0833333
0.449945 0.1 0.0833333
0 0 0.1
0.089989 0 0.1
0 0.05 0.1
0.089989 0.05 0.1
0 0.1 0.1
0.089989 0.1 0.1
0.179978 0 0.1
0.179978 0.05 0.1
0.179978 0.1 0.1
0.269967 0 0.1
0.269967 0.05 0.1
0.269967 0.1 0.1
0.359956 0 0.1
0.359956 0.05 0.1
0.359956 0.1 0.1
0.449945 0 0.1
0.449945 0.05 0.1
0.449945 0.1 0.1
0.483505 0 0
0.483505 -3.44659e-26 0.05
0.483505 0.05 0
0.483333 0.05 0.05
0.483505 0.1 0
0.483505 0.1 0.05
0.517065 0 0
0.517065 -1.72329e-26 0.05
0.517065 0.05 0
0.516667 0.05 0.05
0.517065 0.1 0
0.517065 0.1 0.05
0.550625 0 0
0.550625 0 0.05
0.550625 0.05 0
0.55 0.05 0.05
0.550625 0.1 0
0.550625 0.1 0.05
0.483505 0 0.1
0.483505 0.05 0.1
0.483505 0.1 0.1
0.517065 0 0.1
0.517065 0.05 0.1
0.517065 0.1 0.1
0.550625 0 0.1
0.550625 0.05 0.1
0.550625 0.1 0.1
0.550625 0 0.0166667
0.662969 0 7.70165e-18
0.662969 0 0.0166667
0.550625 0.0166667 0
0.550156 0.0166667 0.0166667
0.662969 0.0166667 2.75727e-25
0.662617 0.0166667 0.0166667
0.550625 0.0333333 0
0.55 0.0333333 0.0166667
0.662969 0.0333333 -2.75727e-25
0.6625 0.0333333 0.0166667
0.550417 0.05 0.0166745
0.662969 0.05 -3.08149e-33
0.662813 0.05 0.0166725
0.550625 0.0666667 0
0.550156 0.0666667 0.0166696
0.662969 0.0666667 -1.37863e-25
0.662617 0.0666667 0.0166689
0.550625 0.0833333 0
0.55 0.0833333 0.0166667
0.662969 0.0833333 -6.89317e-26
0.6625 0.0833333 0.0166667
0.550625 0.1 0.0166667
0.662969 0.1 0
0.662969 0.1 0.0166667
0.775313 0 2.20644e-17
0.775313 2.40741e-35 0.0166667
0.775313 0.0166667 2.34121e-33
0.775078 0.0166667 0.0166667
0.775313 0.0333333 6.16298e-33
0.775 0.0333333 0.0166667
0.775313 0.05 2.08392e-33
0.775208 0.05 0.0166706
0.775313 0.0666667 3.08149e-33
0.775078 0.0666667 0.0166681
0.775313 0.0833333 -3.08149e-33
0.775 0.0833333 0.0166667
0.775313 0.1 0
0.775313 0.1 0.0166667
0.887656 0 1.89718e-17
0.887656 2.52496e-35 0.0166667
0.887656 0.0166667 0
0.887539 0.0166667 0.0166667
0.887656 0.0333333 0
0.8875 0.0333333 0.0166667
0.887656 0.05 0
0.887604 0.05 0.0166686
0.887656 0.0666667 0
0.887539 0.0666667 0.0166674
0.887656 0.0833333 -3.08149e-33
0.8875 0.0833333 0.0166667
0.887656 0.1 0
0.887656 0.1 0.0166667
1 0 0
1 3.03238e-19 0.0166667
1 0.0166667 5.38882e-18
1 0.0166667 0.0166667
1 0.0333333 1.07776e-17
1 0.0333333 0.0166667
1 0.05 1.54736e-17
1 0.05 0.0166667
1 0.0666667 1.51731e-17
1 0.0666667 0.0166667
1 0.0833333 4.37408e-18
1 0.0833333 0.0166667
1 0.1 0
1 0.1 0.0166667
0.550625 0 0.0333333
0.662969 0 0.0333333
0.55 0.0166667 0.0333333
0.6625 0.0166667 0.0333333
0.55 0.0333333 0.0333333
0.6625 0.0333333 0.0333333
0.550208 0.05 0.0333372
0.662656 0.05 0.0333363
0.55 0.0666667 0.0333333
0.6625 0.0666667 0.0333333
0.55 0.0833333 0.0333333
0.6625 0.0833333 0.0333333
0.550625 0.1 0.0333333
0.662969 0.1 0.0333333
0.775313 0 0.0333333
0.775 0.0166667 0.0333333
0.775 0.0333333 0.0333333
0.775104 0.05 0.0333353
0.775 0.0666667 0.0333333
0.775 0.0833333 0.0333333
0.775313 0.1 0.0333333
0.887656 0 0.0333333
0.8875 0.0166667 0.0333333
0.8875 0.0333333 0.0333333
0.887552 0.05 0.0333343
0.8875 0.0666667 0.0333333
0.8875 0.0833333 0.0333333
0.887656 0.1 0.0333333
1 0 0.0333333
1 0.0166667 0.0333333
1 0.0333333 0.0333333
1 0.05 0.0333333
1 0.0666667 0.0333333
1 0.0833333 0.0333333
1 0.1 0.0333333
0.662969 0 0.05
0.550417 0.0166745 0.05
0.662813 0.0166725 0.05
0.550208 0.0333372 0.05
0.662656 0.0333363 0.05
0.6625 0.05 0.05
0.550208 0.0666628 0.05
0.662656 0.0666637 0.05
0.550417 0.0833255 0.05
0.662813 0.0833275 0.05
0.662969 0.1 0.05
0.775313 0 0.05
0.775208 0.0166706 0.05
0.775104 0.0333353 0.05
0.775 0.05 0.05
0.775104 0.0666647 0.05
0.775208 0.0833294 0.05
0.775313 0.1 0.05
0.887656 0 0.05
0.887604 0.0166686 0.05
0.887552 0.0333343 0.05
0.8875 0.05 0.05
0.887552 0.0666657 0.05
0.887604 0.0833314 0.05
0.887656 0.1 0.05
1 0 0.05
1 0.0166667 0.05
1 0.0333333 0.05
1 0.05 0.05
1 0.0666667 0.05
1 0.0833333 0.05
1 0.1 0.05
0.550625 0 0.0666667
0.662969 0 0.0666667
0.550156 0.0166696 0.0666667
0.662617 0.0166689 0.0666667
0.55 0.0333333 0.0666667
0.6625 0.0333333 0.0666667
0.550208 0.05 0.0666628
0.662656 0.05 0.0666637
0.55 0.0666667 0.0666667
0.6625 0.0666667 0.0666667
0.55 0.0833333 0.0666667
0.6625 0.0833333 0.0666667
0.550625 0.1 0.0666667
0.662969 0.1 0.0666667
0.775313 0 0.0666667
0.775078 0.0166681 0.0666667
0.775 0.0333333 0.0666667
0.775104 0.05 0.0666647
0.775 0.0666667 0.0666667
0.775 0.0833333 0.0666667
0.775313 0.1 0.0666667
0.887656 0 0.0666667
0.887539 0.0166674 0.0666667
0.8875 0.0333333 0.0666667
0.887552 0.05 0.0666657
0.8875 0.0666667 0.0666667
0.8875 0.0833333 0.0666667
0.887656 0.1 0.0666667
1 0 0.0666667
1 0.0166667 0.0666667
1 0.0333333 0.0666667
1 0.05 0.0666667
1 0.0666667 0.0666667
1 0.0833333 0.0666667
1 0.1 0.0666667
0.550625 0 0.0833333
0.662969 0 0.0833333
0.55 0.0166667 0.0833333
0.6625 0.0166667 0.0833333
0.55 0.0333333 0.0833333
0.6625 0.0333333 0.0833333
0.550417 0.05 0.0833255
0.662813 0.05 0.0833275
0.55 0.0666667 0.0833333
0.6625 0.0666667 0.0833333
0.55 0.0833333 0.0833333
0.6625 0.0833333 0.0833333
0.550625 0.1 0.0833333
0.662969 0.1 0.0833333
0.775313 0 0.0833333
0.775 0.0166667 0.0833333
0.775 0.0333333 0.0833333
0.775208 0.05 0.0833294
0.775 0.0666667 0.0833333
0.775 0.0833333 0.0833333
0.775313 0.1 0.0833333
0.887656 0 0.0833333
0.8875 0.0166667 0.0833333
0.8875 0.0333333 0.0833333
0.887604 0.05 0.0833314
0.8875 0.0666667 0.0833333
0.8875 0.0833333 0.0833333
0.887656 0.1 0.0833333
1 0 0.0833333
1 0.0166667 0.0833333
1 0.0333333 0.0833333
1 0.05 0.0833333
1 0.0666667 0.0833333
1 0.0833333 0.0833333
1 0.1 0.0833333
0.662969 0 0.1
0.550625 0.0166667 0.1
0.662969 0.0166667 0.1
0.550625 0.0333333 0.1
0.662969 0.0333333 0.1
0.662969 0.05 0.1
0.550625 0.0666667 0.1
0.662969 0.0666667 0.1
0.550625 0.0833333 0.1
0.662969 0.0833333 0.1
0.662969 0.1 0.1
0.775313 0 0.1
0.775313 0.0166667 0.1
0.775313 0.0333333 0.1
0.775313 0.05 0.1
0.775313 0.0666667 0.1
0.775313 0.0833333 0.1
0.775313 0.1 0.1
0.887656 0 0.1
0.887656 0.0166667 0.1
0.887656 0.0333333 0.1
0.887656 0.05 0.1
0.887656 0.0666667 0.1
0.887656 0.0833333 0.1
0.887656 0.1 0.1
1 0 0.1
1 0.0166667 0.1
1 0.0333333 0.1
1 0.05 0.1
1 0.0666667 0.1
1 0.0833333 0.1
1 0.1 0.1
CELLS 216 1944
8 0 1 3 2 4 5 7 6
8 4 5 7 6 8 9 11 10
8 2 3 13 12 6 7 15 14
8 6 7 15 14 10 11 17 16
8 12 13 19 18 14 15 21 20
8 14 15 21 20 16 17 23 22
8 18 19 25 24 20 21 27 26
8 20 21 27 26 22 23 29 28
8 24 25 31 30 26 27 33 32
8 26 27 33 32 28 29 35 34
8 1 36 37 3 5 38 39 7
8 5 38 39 7 9 40 41 11
8 3 37 42 13 7 39 43 15
8 7 39 43 15 11 41 44 17
8 13 42 45 19 15 43 46 21
8 15 43 46 21 17 44 47 23
8 19 45 48 25 21 46 49 27
8 21 46 49 27 23 47 50 29
8 25 48 51 31 27 49 52 33
8 27 49 52 33 29 50 53 35
8 36 54 55 37 38 56 57 39
8 38 56 57 39 40 58 59 41
8 37 55 60 42 39 57 61 43
8 39 57 61 43 41 59 62 44
8 42 60 63 45 43 61 64 46
8 43 61 64 46 44 62 65 47
8 45 63 66 48 46 64 67 49
8 46 64 67 49 47 65 68 50
8 48 66 69 51 49 67 70 52
8 49 67 70 52 50 68 71 53
8 54 72 73 55 56 74 75 57
8 56 74 75 57 58 76 77 59
8 55 73 78 60 57 75 79 61
8 57 75 79 61 59 77 80 62
8 60 78 81 63 61 79 82 64
8 61 79 82 64 62 80 83 65
8 63 81 84 66 64 82 85 67
8 64 82 85 67 65 83 86 68
8 66 84 87 69 67 85 88 70
8 67 85 88 70 68 86 89 71
8 72 90 91 73 74 92 93 75
8 74 92 93 75 76 94 95 77
8 73 91 96 78 75 93 97 79
8 75 93 97 79 77 95 98 80
8 78 96 99 81 79 97 100 82
8 79 97 100 82 80 98 101 83
8 81 99 102 84 82 100 103 85
8 82 100 103 85 83 101 104 86
8 84 102 105 87 85 103 106 88
8 85 103 106 88 86 104 107 89
8 90 108 109 91 92 110 111 93
8 92 110 111 93 94 112 113 95
8 91 109 114 96 93 111 115 97
8 93 111 115 97 95 113 116 98
8 96 114 117 99 97 115 118 100
8 97 115 118 100 98 116 119 101
8 99 117 120 102 100 118 121 103
8 100 118 121 103 101 119 122 104
8 102 120 123 105 103 121 124 106
8 103 121 124 106 104 122 125 107
8 30 69 127 126 32 70 129 128
8 32 70 129 128 34 71 131 130
8 126 127 133 132 128 129 135 134
8 128 129 135 134 130 131 137 136
8 132 133 139 138 134 135 141 140
8 134 135 141 140 136 137 143 142
8 69 123 144 127 70 124 145 129
8 70 124 145 129 71 125 146 131
8 127 144 147 133 129 145 148 135
8 129 145 148 135 131 146 149 137
8 133 147 150 139 135 148 151 141
8 135 148 151 141 137 149 152 143
8 138 153 155 154 156 157 159 158
8 156 157 159 158 160 161 163 162
8 160 161 163 162 140 164 166 165
8 140 164 166 165 167 168 170 169
8 167 168 170 169 171 172 174 173
8 171 172 174 173 142 175 177 176
8 154 155 179 178 158 159 181 180
8 158 159 181 180 162 163 183 182
8 162 163 183 182 165 166 185 184
8 165 166 185 184 169 170 187 186
8 169 170 187 186 173 174 189 188
8 173 174 189 188 176 177 191 190
8 178 179 193 192 180 181 195 194
8 180 181 195 194 182 183 197 196
8 182 183 197 196 184 185 199 198
8 184 185 199 198 186 187 201 200
8 186 187 201 200 188 189 203 202
8 188 189 203 202 190 191 205 204
8 192 193 207 206 194 195 209 208
8 194 195 209 208 196 197 211 210
8 196 197 211 210 198 199 213 212
8 198 199 213 212 200 201 215 214
8 200 201 215 214 202 203 217 216
8 202 203 217 216 204 205 219 218
8 153 220 221 155 157 222 223 159
8 157 222 223 159 161 224 225 163
8 161 224 225 163 164 226 227 166
8 164 226 227 166 168 228 229 170
8 168 228 229 170 172 230 231 174
8 172 230 231 174 175 232 233 177
8 155 221 234 179 159 223 235 181
8 159 223 235 181 163 225 236 183
8 163 225 236 183 166 227 237 185
8 166 227 237 185 170 229 238 187
8 170 229 238 187 174 231 239 189
8 174 231 239 189 177 233 240 191
8 179 234 241 193 181 235 242 195
8 181 235 242 195 183 236 243 197
8 183 236 243 197 185 237 244 199
8 185 237 244 199 187 238 245 201
8 187 238 245 201 189 239 246 203
8 189 239 246 203 191 240 247 205
8 193 241 248 207 195 242 249 209
8 195 242 249 209 197 243 250 211
8 197 243 250 211 199 244 251 213
8 199 244 251 213 201 245 252 215
8 201 245 252 215 203 246 253 217
8 203 246 253 217 205 247 254 219
8 220 139 255 221 222 256 257 223
8 222 256 257 223 224 258 259 225
8 224 258 259 225 226 141 260 227
8 226 141 260 227 228 261 262 229
8 228 261 262 229 230 263 264 231
8 230 263 264 231 232 143 265 233
8 221 255 266 234 223 257 267 235
8 223 257 267 235 225 259 268 236
8 225 259 268 236 227 260 269 237
8 227 260 269 237 229 262 270 238
8 229 262 270 238 231 264 271 239
8 231 264 271 239 233 265 272 240
8 234 266 273 241 235 267 274 242
8 235 267 274 242 236 268 275 243
8 236 268 275 243 237 269 276 244
8 237 269 276 244 238 270 277 245
8 238 270 277 245 239 271 278 246
8 239 271 278 246 240 272 279 247
8 241 273 280 248 242 274 281 249
8 242 274 281 249 243 275 282 250
8 243 275 282 250 244 276 283 251
8 244 276 283 251 245 277 284 252
8 245 277 284 252 246 278 285 253
8 246 278 285 253 247 279 286 254
8 139 287 288 255 256 289 290 257
8 256 289 290 257 258 291 292 259
8 258 291 292 259 141 293 294 260
8 141 293 294 260 261 295 296 262
8 261 295 296 262 263 297 298 264
8 263 297 298 264 143 299 300 265
8 255 288 301 266 257 290 302 267
8 257 290 302 267 259 292 303 268
8 259 292 303 268 260 294 304 269
8 260 294 304 269 262 296 305 270
8 262 296 305 270 264 298 306 271
8 264 298 306 271 265 300 307 272
8 266 301 308 273 267 302 309 274
8 267 302 309 274 268 303 310 275
8 268 303 310 275 269 304 311 276
8 269 304 311 276 270 305 312 277
8 270 305 312 277 271 306 313 278
8 271 306 313 278 272 307 314 279
8 273 308 315 280 274 309 316 281
8 274 309 316 281 275 310 317 282
8 275 310 317 282 276 311 318 283
8 276 311 318 283 277 312 319 284
8 277 312 319 284 278 313 320 285
8 278 313 320 285 279 314 321 286
8 287 322 323 288 289 324 325 290
8 289 324 325 290 291 326 327 292
8 291 326 327 292 293 328 329 294
8 293 328 329 294 295 330 331 296
8 295 330 331 296 297 332 333 298
8 297 332 333 298 299 334 335 300
8 288 323 336 301 290 325 337 302
8 290 325 337 302 292 327 338 303
8 292 327 338 303 294 329 339 304
8 294 329 339 304 296 331 340 305
8 296 331 340 305 298 333 341 306
8 298 333 341 306 300 335 342 307
8 301 336 343 308 302 337 344 309
8 302 337 344 309 303 338 345 310
8 303 338 345 310 304 339 346 311
8 304 339 346 311 305 340 347 312
8 305 340 347 312 306 341 348 313
8 306 341 348 313 307 342 349 314
8 308 343 350 315 309 344 351 316
8 309 344 351 316 310 345 352 317
8 310 345 352 317 311 346 353 318
8 311 346 353 318 312 347 354 319
8 312 347 354 319 313 348 355 320
8 313 348 355 320 314 349 356 321
8 322 150 357 323 324 358 359 325
8 324 358 359 325 326 360 361 327
8 326 360 361 327 328 151 362 329
8 328 151 362 329 330 363 364 331
8 330 363 364 331 332 365 366 333
8 332 365 366 333 334 152 367 335
8 323 357 368 336 325 359 369 337
8 325 359 369 337 327 361 370 338
8 327 361 370 338 329 362 371 339
8 329 362 371 339 331 364 372 340
8 331 364 372 340 333 366 373 341
8 333 366 373 341 335 367 374 342
8 336 368 375 343 337 369 376 344
8 337 369 376 344 338 370 377 345
8 338 370 377 345 339 371 378 346
8 339 371 378 346 340 372 379 347
8 340 372 379 347 341 373 380 348
8 341 373 380 348 342 374 381 349
8 343 375 382 350 344 376 383 351
8 344 376 383 351 345 377 384 352
8 345 377 384 352 346 378 385 353
8 346 378 385 353 347 379 386 354
8 347 379 386 354 348 380 387 355
8 348 380 387 355 349 381 388 356
CELL_TYPES 216
12
12
12
12
12
12
12
12
12
12
12
12
12
12
12
12
12
12
12
12
12
12
12
12
12
12
12
12
12
12
12
12
12
12
12
12
12
12
12
12
12
12
12
12
12
12
12
12
12
12
12
12
12
12
12
12
12
12
12
12
12
12
12
12
12
12
12
12
12
12
12
12
12
12
12
12
12
12
12
12
12
12
12
12
12
12
12
12
12
12
12
12
12
12
12
12
12
12
12
12
12
12
12
12
12
12
12
12
12
12
12
12
12
12
12
12
12
12
12
12
12
12
12
12
12
12
12
12
12
12
12
12
12
12
12
12
12
12
12
12
12
12
12
12
12
12
12
12
12
12
12
12
12
12
12
12
12
12
12
12
12
12
12
12
12
12
12
12
12
12
12
12
12
12
12
12
12
12
12
12
12
12
12
12
12
12
12
12
12
12
12
12
12
12
12
12
12
12
12
12
12
12
12
12
12
12
12
12
12
12
12
12
12
12
12
12
CELL_DATA 216
SCALARS GROUP_ZG int 1
LOOKUP_TABLE default
1
1
1
1
1
1
1
1
1
1
1
1
1
1
1
1
1
1
1
1
1
1
1
1
1
1
1
1
1
1
1
1
1
1
1
1
1
1
1
1
1
1
1
1
1
1
1
1
1
1
1
1
1
1
1
1
1
1
1
1
0
0
0
0
0
0
0
0
0
0
0
0
0
0
0
0
0
0
0
0
0
0
0
0
0
0
0
0
0
0
0
0
0
0
0
0
0
0
0
0
0
0
0
0
0
0
0
0
0
0
0
0
0
0
0
0
0
0
0
0
0
0
0
0
0
0
0
0
0
0
0
0
0
0
0
0
0
0
0
0
0
0
0
0
0
0
0
0
0
0
0
0
0
0
0
0
0
0
0
0
0
0
0
0
0
0
0
0
0
0
0
0
0
0
0
0
0
0
0
0
0
0
0
0
0
0
0
0
0
0
0
0
0
0
0
0
0
0
0
0
0
0
0
0
0
0
0
0
0
0
0
0
0
0
0
0
SCALARS GROUP_INIT int 1
LOOKUP_TABLE default
0
0
0
0
0
0
0
0
0
0
0
0
0
0
0
0
0
0
0
0
0
0
0
0
0
0
0
0
0
0
0
0
0
0
0
0
0
0
0
0
0
0
0
0
0
0
0
0
0
0
0
0
0
0
0
0
0
0
0
0
1
1
1
1
1
1
1
1
1
1
1
1
0
0
0
0
0
0
0
0
0
0
0
0
0
0
0
0
0
0
0
0
0
0
0
0
0
0
0
0
0
0
0
0
0
0
0
0
0
0
0
0
0
0
0
0
0
0
0
0
0
0
0
0
0
0
0
0
0
0
0
0
0
0
0
0
0
0
0
0
0
0
0
0
0
0
0
0
0
0
0
0
0
0
0
0
0
0
0
0
0
0
0
0
0
0
0
0
0
0
0
0
0
0
0
0
0
0
0
0
0
0
0
0
0
0
0
0
0
0
0
0
0
0
0
0
0
0
0
0
0
0
0
0
0
0
0
0
0
0
0
0
0
0
0
0
SCALARS GROUP_ZD int 1
LOOKUP_TABLE default
0
0
0
0
0
0
0
0
0
0
0
0
0
0
0
0
0
0
0
0
0
0
0
0
0
0
0
0
0
0
0
0
0
0
0
0
0
0
0
0
0
0
0
0
0
0
0
0
0
0
0
0
0
0
0
0
0
0
0
0
0
0
0
0
0
0
0
0
0
0
0
0
1
1
1
1
1
1
1
1
1
1
1
1
1
1
1
1
1
1
1
1
1
1
1
1
1
1
1
1
1
1
1
1
1
1
1
1
1
1
1
1
1
1
1
1
1
1
1
1
1
1
1
1
1
1
1
1
1
1
1
1
1
1
1
1
1
1
1
1
1
1
1
1
1
1
1
1
1
1
1
1
1
1
1
1
1
1
1
1
1
1
1
1
1
1
1
1
1
1
1
1
1
1
1
1
1
1
1
1
1
1
1
1
1
1
1
1
1
1
1
1
1
1
1
1
1
1
1
1
1
1
1
1
1
1
1
1
1
1
1
1
1
1
1
1
