# vtk DataFile Version 2.0
Maillage Arcane
ASCII
DATASET UNSTRUCTURED_GRID
POINTS 503 double
0 0 0
0 1.36202897918491e-18 0.0166666666666667
0.08998900056 0 2.33781093442187e-19
0.08998900056 2.75726871749777e-26 0.0166666666666667
0 0.025 0
0 0.025 0.0166666666666667
0.08998900056 0.025 2.40741243048404e-35
0.0899999976155059 0.025000000372529 0.0166666669150194
0 0.05 0
0 0.05 0.0166666666666667
0.08998900056 0.05 2.40741243048404e-35
0.0899926662584679 0.0500000007450582 0.0166666790084873
0 0.075 0
0 0.075 0.0166666666666667
0.08998900056 0.075 0
0.0899999976155059 0.0750000011175871 0.0166666669150193
0 0.1 0
0 0.1 0.0166666666666667
0.08998900056 0.1 0
0.08998900056 0.100000001490116 0.0166666666666666
0.17997800112 0 4.67562186884374e-19
0.17997800112 3.44658587279808e-27 0.0166666666666667
0.17997800112 0.025 9.62964972193618e-35
0.179999995231012 0.025000000372529 0.0166666669150193
0.17997800112 0.05 9.62964972193618e-35
0.179985332516936 0.0500000007450584 0.0166666911019552
0.17997800112 0.075 4.81482486096809e-35
0.179999995231012 0.0750000011175871 0.0166666669150193
0.17997800112 0.1 0
0.17997800112 0.100000001490116 0.0166666666666666
0.26996700168 0 1.24979711367372e-18
0.26996700168 5.16987890549362e-27 0.0166666666666667
0.26996700168 0.025 1.92592994438724e-34
0.269999992846518 0.025000000372529 0.0166666669150193
0.26996700168 0.05 3.85185988877447e-34
0.269977998775404 0.0500000007450586 0.0166667031954232
0.26996700168 0.075 1.44444745829043e-34
0.269999992846518 0.075000001117587 0.0166666669150193
0.26996700168 0.1 0
0.26996700168 0.100000001490116 0.0166666666666666
0.35995600224 1.46536699874994e-17 0
0.35995600224 -1.65436120353564e-25 0.0166666666666667
0.35995600224 0.025 0
0.359999990462023 0.025000000372529 0.0166666669150193
0.35995600224 0.05 0
0.359970665033871 0.0500000007450588 0.0166667152888911
0.35995600224 0.075 0
0.359999990462023 0.0750000011175871 0.0166666669150193
0.35995600224 0.1 0
0.35995600224 0.100000001490116 0.0166666666666666
0.4499450028 3.46272031921233e-18 0
0.4499450028 2.30848021280822e-18 0.0166666666666666
0.4499450028 0.025 0
0.449999988077529 0.0250000001241763 0.016666666790843
0.4499450028 0.0499999999999999 0
0.449963331292339 0.0500000002483535 0.0166667273823591
0.4499450028 0.075 0
0.449999988077529 0.075000000372529 0.016666666790843
0.4499450028 0.1 0
0.4499450028 0.100000000496705 0.0166666666666667
0 0 0.0333333333333333
0.08998900056 -6.89317184189266e-27 0.0333333333333333
0 0.025 0.0333333333333333
0.0899999976155059 0.025000000372529 0.0333333338300387
0 0.05 0.0333333333333333
0.0899963319369869 0.0500000007450581 0.0333333398767726
0 0.075 0.0333333333333333
0.0899999976155058 0.0750000011175871 0.0333333338300387
0 0.1 0.0333333333333333
0.08998900056 0.100000001490116 0.0333333333333333
0.17997800112 -1.37863436837853e-26 0.0333333333333333
0.179999995231012 0.025000000372529 0.0333333338300387
0.179992663873974 0.0500000007450582 0.0333333459235066
0.179999995231012 0.0750000011175871 0.0333333338300387
0.17997800112 0.100000001490116 0.0333333333333333
0.26996700168 -2.06795156219745e-26 0.0333333333333333
0.269999992846518 0.025000000372529 0.0333333338300387
0.269988995810961 0.0500000007450583 0.0333333519702406
0.269999992846518 0.0750000011175871 0.0333333338300387
0.26996700168 0.100000001490116 0.0333333333333333
0.35995600224 -1.6543611881282e-25 0.0333333333333333
0.359999990462023 0.025000000372529 0.0333333338300387
0.359985327747948 0.0500000007450584 0.0333333580169746
0.359999990462023 0.0750000011175871 0.0333333338300387
0.35995600224 0.100000001490116 0.0333333333333333
0.4499450028 1.15424010640411e-18 0.0333333333333333
0.449999988077529 0.0250000002483527 0.033333333581686
0.449981659684934 0.0500000004967058 0.0333333640637086
0.449999988077529 0.075000000745058 0.033333333581686
0.4499450028 0.100000000993411 0.0333333333333333
0 0 0.05
0.08998900056 -1.03397577146907e-26 0.05
0 0.025 0.05
0.0899944990944026 0.0250000064192758 0.0500000007450582
0 0.05 0.05
0.0899999976155058 0.050000000745058 0.050000000745058
0 0.075 0.05
0.0899944990944026 0.0749999950708403 0.0500000007450582
0 0.1 0.05
0.08998900056 0.100000001490116 0.05
0.17997800112 -2.0679515525678e-26 0.05
0.179988998188805 0.0250000124660226 0.0500000007450582
0.179999995231012 0.0500000007450581 0.050000000745058
0.179988998188805 0.0749999890240936 0.0500000007450582
0.17997800112 0.100000001490116 0.05
0.26996700168 2.06795148516025e-26 0.05
0.269983497283208 0.0250000185127693 0.0500000007450583
0.269999992846518 0.050000000745058 0.050000000745058
0.269983497283208 0.0749999829773468 0.0500000007450583
0.26996700168 0.100000001490116 0.05
0.35995600224 1.65436127286912e-25 0.05
0.35997799637761 0.0250000245595161 0.0500000007450584
0.359999990462023 0.050000000745058 0.050000000745058
0.35997799637761 0.0749999769306 0.0500000007450584
0.35995600224 0.100000001490116 0.05
0.4499450028 0 0.0499999999999999
0.449972495472013 0.0250000306062629 0.0500000003725294
0.449999988077529 0.050000000745058 0.050000000745058
0.449972495472013 0.0749999708838532 0.0500000003725294
0.4499450028 0.100000001490116 0.05
0 0 0.0666666666666667
0.08998900056 -6.89317186751844e-27 0.0666666666666667
0 0.025 0.0666666666666667
0.0899999976155059 0.025000000372529 0.0666666676600774
0 0.05 0.0666666666666667
0.0899963319369869 0.050000000745058 0.0666666616133434
0 0.075 0.0666666666666667
0.0899999976155058 0.0750000011175871 0.0666666676600774
0 0.1 0.0666666666666667
0.08998900056 0.100000001490116 0.0666666666666667
0.17997800112 -1.37863440239264e-26 0.0666666666666667
0.179999995231012 0.025000000372529 0.0666666676600774
0.179992663873974 0.050000000745058 0.0666666555666094
0.179999995231012 0.0750000011175871 0.0666666676600774
0.17997800112 0.100000001490116 0.0666666666666667
0.26996700168 -2.0679515910864e-26 0.0666666666666666
0.269999992846518 0.025000000372529 0.0666666676600774
0.269988995810961 0.050000000745058 0.0666666495198754
0.269999992846518 0.0750000011175871 0.0666666676600774
0.26996700168 0.100000001490116 0.0666666666666667
0.35995600224 1.10290754092514e-25 0.0666666666666666
0.359999990462023 0.025000000372529 0.0666666676600774
0.359985327747948 0.050000000745058 0.0666666434731415
0.359999990462023 0.0750000011175871 0.0666666676600774
0.35995600224 0.100000001490116 0.0666666666666666
0.4499450028 0 0.0666666666666666
0.449999988077529 0.025000000372529 0.066666667163372
0.449981659684934 0.050000000745058 0.0666666374264075
0.449999988077529 0.0750000011175871 0.066666667163372
0.4499450028 0.100000001490116 0.0666666666666666
0 0 0.0833333333333333
0.08998900056 -3.44658584872396e-27 0.0833333333333333
0 0.025 0.0833333333333333
0.0899999976155059 0.025000000372529 0.0833333345750968
0 0.05 0.0833333333333334
0.0899926662584679 0.0500000007450581 0.0833333224816288
0 0.075 0.0833333333333333
0.0899999976155058 0.0750000011175871 0.0833333345750968
0 0.1 0.0833333333333333
0.08998900056 0.100000001490116 0.0833333333333333
0.17997800112 -6.89317172307369e-27 0.0833333333333333
0.179999995231012 0.025000000372529 0.0833333345750967
0.179985332516936 0.0500000007450581 0.0833333103881609
0.179999995231012 0.0750000011175871 0.0833333345750967
0.17997800112 0.100000001490116 0.0833333333333333
0.26996700168 -1.03397575220977e-26 0.0833333333333333
0.269999992846518 0.025000000372529 0.0833333345750968
0.269977998775404 0.0500000007450581 0.0833332982946929
0.269999992846518 0.0750000011175871 0.0833333345750968
0.26996700168 0.100000001490116 0.0833333333333333
0.35995600224 5.51453766610712e-26 0.0833333333333333
0.359999990462023 0.025000000372529 0.0833333345750968
0.359970665033872 0.0500000007450581 0.0833332862012249
0.359999990462023 0.0750000011175871 0.0833333345750968
0.35995600224 0.100000001490116 0.0833333333333333
0.4499450028 0 0.0833333333333333
0.449999988077529 0.025000000372529 0.083333333954215
0.449963331292339 0.0500000007450581 0.083333274107757
0.449999988077529 0.0750000011175871 0.083333333954215
0.4499450028 0.100000001490116 0.0833333333333333
0 0 0.1
0.08998900056 0 0.1
0 0.025 0.1
0.08998900056 0.025000000372529 0.100000001490116
0 0.05 0.1
0.08998900056 0.0500000007450581 0.100000001490116
0 0.075 0.1
0.08998900056 0.0750000011175871 0.100000001490116
0 0.1 0.1
0.08998900056 0.100000001490116 0.1
0.17997800112 0 0.1
0.17997800112 0.025000000372529 0.100000001490116
0.17997800112 0.0500000007450581 0.100000001490116
0.17997800112 0.0750000011175871 0.100000001490116
0.17997800112 0.100000001490116 0.1
0.26996700168 0 0.1
0.26996700168 0.025000000372529 0.100000001490116
0.26996700168 0.0500000007450581 0.100000001490116
0.26996700168 0.0750000011175871 0.100000001490116
0.26996700168 0.100000001490116 0.1
0.35995600224 0 0.1
0.35995600224 0.025000000372529 0.100000001490116
0.35995600224 0.0500000007450581 0.100000001490116
0.35995600224 0.0750000011175871 0.100000001490116
0.35995600224 0.100000001490116 0.1
0.4499450028 0 0.1
0.4499450028 0.025000000372529 0.100000000745058
0.4499450028 0.0500000007450581 0.100000001490116
0.4499450028 0.0750000011175871 0.100000000745058
0.4499450028 0.100000001490116 0.1
0.483505141266667 0 0
0.483505141266667 -3.44658600761318e-26 0.05
0.483505141266667 0.05 0
0.483333329359852 0.050000000745058 0.050000000745058
0.483505141266667 0.1 0
0.483505141266667 0.100000001490116 0.05
0.517065279733333 0 0
0.517065279733333 -1.72329287540029e-26 0.05
0.517065279733333 0.05 0
0.516666670642174 0.0500000007450581 0.050000000745058
0.517065279733333 0.1 0
0.517065279733333 0.100000001490116 0.05
0.5506254182 0 0
0.5506254182 0 0.05
0.5506254182 0.05 0
0.550000011924497 0.0500000007450581 0.050000000745058
0.5506254182 0.1 0
0.5506254182 0.100000001490116 0.0499999999999999
0.483505141266667 0 0.1
0.483505141266667 0.0500000007450581 0.100000001490116
0.483505141266667 0.100000001490116 0.1
0.517065279733333 0 0.1
0.517065279733333 0.0500000007450581 0.100000001490116
[...]
POINT_DATA 503
CELL_DATA 292
SCALARS GROUP_ZG int 1
LOOKUP_TABLE default
1
1
1
1
1
1
1
1
1
1
1
1
1
1
1
1
1
1
1
1
1
1
1
1
1
1
1
1
1
1
1
1
1
1
1
1
1
1
1
1
1
1
1
1
1
1
1
1
1
1
1
1
1
1
1
1
1
1
1
1
1
1
1
1
1
1
1
1
1
1
1
1
1
1
1
1
1
1
1
1
1
1
1
1
1
1
1
1
1
1
1
1
1
1
1
1
1
1
1
1
1
1
1
1
1
1
1
1
1
1
1
1
1
1
1
1
1
1
1
1
0
0
0
0
0
0
0
0
0
0
0
0
0
0
0
0
0
0
0
0
0
0
0
0
0
0
0
0
0
0
0
0
0
0
0
0
0
0
0
0
0
0
0
0
0
0
0
0
0
0
0
0
0
0
0
0
0
0
0
0
0
0
0
0
0
0
0
0
0
0
0
0
0
0
0
0
0
0
0
0
0
0
0
0
0
0
0
0
0
0
0
0
0
0
0
0
0
0
0
0
0
0
0
0
0
0
0
0
0
0
0
0
0
0
0
0
0
0
0
0
0
0
0
0
0
0
0
0
0
0
0
0
0
0
0
0
0
0
0
0
0
0
0
0
0
0
0
0
0
0
0
0
0
0
0
0
0
0
0
0
0
0
0
0
0
0
0
0
0
0
0
0
SCALARS GROUP_INIT int 1
LOOKUP_TABLE default
0
0
0
0
0
0
0
0
0
0
0
0
0
0
0
0
0
0
0
0
0
0
0
0
0
0
0
0
0
0
0
0
0
0
0
0
0
0
0
0
0
0
0
0
0
0
0
0
0
0
0
0
0
0
0
0
0
0
0
0
0
0
0
0
0
0
0
0
0
0
0
0
0
0
0
0
0
0
0
0
0
0
0
0
0
0
0
0
0
0
0
0
0
0
0
0
0
0
0
0
0
0
0
0
0
0
0
0
0
0
0
0
0
0
0
0
0
0
0
0
1
1
1
1
1
1
1
1
1
1
1
1
0
0
0
0
0
0
0
0
0
0
0
0
0
0
0
0
0
0
0
0
0
0
0
0
0
0
0
0
0
0
0
0
0
0
0
0
0
0
0
0
0
0
0
0
0
0
0
0
0
0
0
0
0
0
0
0
0
0
0
0
0
0
0
0
0
0
0
0
0
0
0
0
0
0
0
0
0
0
0
0
0
0
0
0
0
0
0
0
0
0
0
0
0
0
0
0
0
0
0
0
0
0
0
0
0
0
0
0
0
0
0
0
0
0
0
0
0
0
0
0
0
0
0
0
0
0
0
0
0
0
0
0
0
0
0
0
0
0
0
0
0
0
0
0
0
0
0
0
0
0
0
0
0
0
0
0
0
0
0
0
SCALARS GROUP_ZD int 1
LOOKUP_TABLE default
0
0
0
0
0
0
0
0
0
0
0
0
0
0
0
0
0
0
0
0
0
0
0
0
0
0
0
0
0
0
0
0
0
0
0
0
0
0
0
0
0
0
0
0
0
0
0
0
0
0
0
0
0
0
0
0
0
0
0
0
0
0
0
0
0
0
0
0
0
0
0
0
0
0
0
0
0
0
0
0
0
0
0
0
0
0
0
0
0
0
0
0
0
0
0
0
0
0
0
0
0
0
0
0
0
0
0
0
0
0
0
0
0
0
0
0
0
0
0
0
0
0
0
0
0
0
0
0
0
0
0
0
1
1
1
1
1
1
1
1
1
1
1
1
1
1
1
1
1
1
1
1
1
1
1
1
1
1
1
1
1
1
1
1
1
1
1
1
1
1
1
1
1
1
1
1
1
1
1
1
1
1
1
1
1
1
1
1
1
1
1
1
1
1
1
1
1
1
1
1
1
1
1
1
1
1
1
1
1
1
1
1
1
1
1
1
1
1
1
1
1
1
1
1
1
1
1
1
1
1
1
1
1
1
1
1
1
1
1
1
1
1
1
1
1
1
1
1
1
1
1
1
1
1
1
1
1
1
1
1
1
1
1
1
1
1
1
1
1
1
1
1
1
1
1
1
1
1
1
1
1
1
1
1
1
1
1
1
1
1
1
1
