# vtk DataFile Version 2.0
Maillage Arcane
ASCII
DATASET UNSTRUCTURED_GRID
POINTS 45 double
0 0 0
0 1 0
0 2 0
0 0 1
0 1 1
0 2 1
0 0 2
0 1 2
0 2 2
0.25 0 0
0.25 1 0
0.25 2 0
0.25 0 1
0.25 1 1
0.25 2 1
0.25 0 2
0.25 1 2
0.25 2 2
0.5 0 0
0.5 1 0
0.5 2 0
0.5 0 1
0.5 1 1
0.5 2 1
0.5 0 2
0.5 1 2
0.5 2 2
0.75 0 0
0.75 1 0
0.75 2 0
0.75 0 1
0.75 1 1
0.75 2 1
0.75 0 2
0.75 1 2
0.75 2 2
1 0 0
1 1 0
1 2 0
1 0 1
1 1 1
1 2 1
1 0 2
1 1 2
1 2 2
CELLS 16 144
8 0 1 4 3 9 10 13 12
8 1 2 5 4 10 11 14 13
8 3 4 7 6 12 13 16 15
8 4 5 8 7 13 14 17 16
8 9 10 13 12 18 19 22 21
8 10 11 14 13 19 20 23 22
8 12 13 16 15 21 22 25 24
8 13 14 17 16 22 23 26 25
8 18 19 22 21 27 28 31 30
8 19 20 23 22 28 29 32 31
8 21 22 25 24 30 31 34 33
8 22 23 26 25 31 32 35 34
8 27 28 31 30 36 37 40 39
8 28 29 32 31 37 38 41 40
8 30 31 34 33 39 40 43 42
8 31 32 35 34 40 41 44 43
CELL_TYPES 16
12
12
12
12
12
12
12
12
12
12
12
12
12
12
12
12
CELL_DATA 16
SCALARS GROUP_ZG int 1
LOOKUP_TABLE default
1
1
1
1
1
1
1
1
0
0
0
0
0
0
0
0
SCALARS GROUP_ZD int 1
LOOKUP_TABLE default
0
0
0
0
0
0
0
0
1
1
1
1
1
1
1
1
SCALARS ReadCellProperty double 1
LOOKUP_TABLE default
1.0
2.0
3.0
1.0
2.0
3.0
1.0
2.0
3.0
1.0
2.0
3.0
1.0
2.0
3.0
1.0
